# vtk DataFile Version 4.2
vtk output
ASCII
DATASET UNSTRUCTURED_GRID
POINTS 4225 double
0 0 0 1 0 0 2 0 0 
3 0 0 4 0 0 5 0 0 
6 0 0 7 0 0 8 0 0 
9 0 0 10 0 0 11 0 0 
12 0 0 13 0 0 14 0 0 
15 0 0 16 0 0 17 0 0 
18 0 0 19 0 0 20 0 0 
21 0 0 22 0 0 23 0 0 
24 0 0 25 0 0 26 0 0 
27 0 0 28 0 0 29 0 0 
30 0 0 31 0 0 32 0 0 
33 0 0 34 0 0 35 0 0 
36 0 0 37 0 0 38 0 0 
39 0 0 40 0 0 41 0 0 
42 0 0 43 0 0 44 0 0 
45 0 0 46 0 0 47 0 0 
48 0 0 49 0 0 50 0 0 
51 0 0 52 0 0 53 0 0 
54 0 0 55 0 0 56 0 0 
57 0 0 58 0 0 59 0 0 
60 0 0 61 0 0 62 0 0 
63 0 0 64 0 0 0 1 0 
1 1 0 2 1 0 3 1 0 
4 1 0 5 1 0 6 1 0 
7 1 0 8 1 0 9 1 0 
10 1 0 11 1 0 12 1 0 
13 1 0 14 1 0 15 1 0 
16 1 0 17 1 0 18 1 0 
19 1 0 20 1 0 21 1 0 
22 1 0 23 1 0 24 1 0 
25 1 0 26 1 0 27 1 0 
28 1 0 29 1 0 30 1 0 
31 1 0 32 1 0 33 1 0 
34 1 0 35 1 0 36 1 0 
37 1 0 38 1 0 39 1 0 
40 1 0 41 1 0 42 1 0 
43 1 0 44 1 0 45 1 0 
46 1 0 47 1 0 48 1 0 
49 1 0 50 1 0 51 1 0 
52 1 0 53 1 0 54 1 0 
55 1 0 56 1 0 57 1 0 
58 1 0 59 1 0 60 1 0 
61 1 0 62 1 0 63 1 0 
64 1 0 0 2 0 1 2 0 
2 2 0 3 2 0 4 2 0 
5 2 0 6 2 0 7 2 0 
8 2 0 9 2 0 10 2 0 
11 2 0 12 2 0 13 2 0 
14 2 0 15 2 0 16 2 0 
17 2 0 18 2 0 19 2 0 
20 2 0 21 2 0 22 2 0 
23 2 0 24 2 0 25 2 0 
26 2 0 27 2 0 28 2 0 
29 2 0 30 2 0 31 2 0 
32 2 0 33 2 0 34 2 0 
35 2 0 36 2 0 37 2 0 
38 2 0 39 2 0 40 2 0 
41 2 0 42 2 0 43 2 0 
44 2 0 45 2 0 46 2 0 
47 2 0 48 2 0 49 2 0 
50 2 0 51 2 0 52 2 0 
53 2 0 54 2 0 55 2 0 
56 2 0 57 2 0 58 2 0 
59 2 0 60 2 0 61 2 0 
62 2 0 63 2 0 64 2 0 
0 3 0 1 3 0 2 3 0 
3 3 0 4 3 0 5 3 0 
6 3 0 7 3 0 8 3 0 
9 3 0 10 3 0 11 3 0 
12 3 0 13 3 0 14 3 0 
15 3 0 16 3 0 17 3 0 
18 3 0 19 3 0 20 3 0 
21 3 0 22 3 0 23 3 0 
24 3 0 25 3 0 26 3 0 
27 3 0 28 3 0 29 3 0 
30 3 0 31 3 0 32 3 0 
33 3 0 34 3 0 35 3 0 
36 3 0 37 3 0 38 3 0 
39 3 0 40 3 0 41 3 0 
42 3 0 43 3 0 44 3 0 
45 3 0 46 3 0 47 3 0 
48 3 0 49 3 0 50 3 0 
51 3 0 52 3 0 53 3 0 
54 3 0 55 3 0 56 3 0 
57 3 0 58 3 0 59 3 0 
60 3 0 61 3 0 62 3 0 
63 3 0 64 3 0 0 4 0 
1 4 0 2 4 0 3 4 0 
4 4 0 5 4 0 6 4 0 
7 4 0 8 4 0 9 4 0 
10 4 0 11 4 0 12 4 0 
13 4 0 14 4 0 15 4 0 
16 4 0 17 4 0 18 4 0 
19 4 0 20 4 0 21 4 0 
22 4 0 23 4 0 24 4 0 
25 4 0 26 4 0 27 4 0 
28 4 0 29 4 0 30 4 0 
31 4 0 32 4 0 33 4 0 
34 4 0 35 4 0 36 4 0 
37 4 0 38 4 0 39 4 0 
40 4 0 41 4 0 42 4 0 
43 4 0 44 4 0 45 4 0 
46 4 0 47 4 0 48 4 0 
49 4 0 50 4 0 51 4 0 
52 4 0 53 4 0 54 4 0 
55 4 0 56 4 0 57 4 0 
58 4 0 59 4 0 60 4 0 
61 4 0 62 4 0 63 4 0 
64 4 0 0 5 0 1 5 0 
2 5 0 3 5 0 4 5 0 
5 5 0 6 5 0 7 5 0 
8 5 0 9 5 0 10 5 0 
11 5 0 12 5 0 13 5 0 
14 5 0 15 5 0 16 5 0 
17 5 0 18 5 0 19 5 0 
20 5 0 21 5 0 22 5 0 
23 5 0 24 5 0 25 5 0 
26 5 0 27 5 0 28 5 0 
29 5 0 30 5 0 31 5 0 
32 5 0 33 5 0 34 5 0 
35 5 0 36 5 0 37 5 0 
38 5 0 39 5 0 40 5 0 
41 5 0 42 5 0 43 5 0 
44 5 0 45 5 0 46 5 0 
47 5 0 48 5 0 49 5 0 
50 5 0 51 5 0 52 5 0 
53 5 0 54 5 0 55 5 0 
56 5 0 57 5 0 58 5 0 
59 5 0 60 5 0 61 5 0 
62 5 0 63 5 0 64 5 0 
0 6 0 1 6 0 2 6 0 
3 6 0 4 6 0 5 6 0 
6 6 0 7 6 0 8 6 0 
9 6 0 10 6 0 11 6 0 
12 6 0 13 6 0 14 6 0 
15 6 0 16 6 0 17 6 0 
18 6 0 19 6 0 20 6 0 
21 6 0 22 6 0 23 6 0 
24 6 0 25 6 0 26 6 0 
27 6 0 28 6 0 29 6 0 
30 6 0 31 6 0 32 6 0 
33 6 0 34 6 0 35 6 0 
36 6 0 37 6 0 38 6 0 
39 6 0 40 6 0 41 6 0 
42 6 0 43 6 0 44 6 0 
45 6 0 46 6 0 47 6 0 
48 6 0 49 6 0 50 6 0 
51 6 0 52 6 0 53 6 0 
54 6 0 55 6 0 56 6 0 
57 6 0 58 6 0 59 6 0 
60 6 0 61 6 0 62 6 0 
63 6 0 64 6 0 0 7 0 
1 7 0 2 7 0 3 7 0 
4 7 0 5 7 0 6 7 0 
7 7 0 8 7 0 9 7 0 
10 7 0 11 7 0 12 7 0 
13 7 0 14 7 0 15 7 0 
16 7 0 17 7 0 18 7 0 
19 7 0 20 7 0 21 7 0 
22 7 0 23 7 0 24 7 0 
25 7 0 26 7 0 27 7 0 
28 7 0 29 7 0 30 7 0 
31 7 0 32 7 0 33 7 0 
34 7 0 35 7 0 36 7 0 
37 7 0 38 7 0 39 7 0 
40 7 0 41 7 0 42 7 0 
43 7 0 44 7 0 45 7 0 
46 7 0 47 7 0 48 7 0 
49 7 0 50 7 0 51 7 0 
52 7 0 53 7 0 54 7 0 
55 7 0 56 7 0 57 7 0 
58 7 0 59 7 0 60 7 0 
61 7 0 62 7 0 63 7 0 
64 7 0 0 8 0 1 8 0 
2 8 0 3 8 0 4 8 0 
5 8 0 6 8 0 7 8 0 
8 8 0 9 8 0 10 8 0 
11 8 0 12 8 0 13 8 0 
14 8 0 15 8 0 16 8 0 
17 8 0 18 8 0 19 8 0 
20 8 0 21 8 0 22 8 0 
23 8 0 24 8 0 25 8 0 
26 8 0 27 8 0 28 8 0 
29 8 0 30 8 0 31 8 0 
32 8 0 33 8 0 34 8 0 
35 8 0 36 8 0 37 8 0 
38 8 0 39 8 0 40 8 0 
41 8 0 42 8 0 43 8 0 
44 8 0 45 8 0 46 8 0 
47 8 0 48 8 0 49 8 0 
50 8 0 51 8 0 52 8 0 
53 8 0 54 8 0 55 8 0 
56 8 0 57 8 0 58 8 0 
59 8 0 60 8 0 61 8 0 
62 8 0 63 8 0 64 8 0 
0 9 0 1 9 0 2 9 0 
3 9 0 4 9 0 5 9 0 
6 9 0 7 9 0 8 9 0 
9 9 0 10 9 0 11 9 0 
12 9 0 13 9 0 14 9 0 
15 9 0 16 9 0 17 9 0 
18 9 0 19 9 0 20 9 0 
21 9 0 22 9 0 23 9 0 
24 9 0 25 9 0 26 9 0 
27 9 0 28 9 0 29 9 0 
30 9 0 31 9 0 32 9 0 
33 9 0 34 9 0 35 9 0 
36 9 0 37 9 0 38 9 0 
39 9 0 40 9 0 41 9 0 
42 9 0 43 9 0 44 9 0 
45 9 0 46 9 0 47 9 0 
48 9 0 49 9 0 50 9 0 
51 9 0 52 9 0 53 9 0 
54 9 0 55 9 0 56 9 0 
57 9 0 58 9 0 59 9 0 
60 9 0 61 9 0 62 9 0 
63 9 0 64 9 0 0 10 0 
1 10 0 2 10 0 3 10 0 
4 10 0 5 10 0 6 10 0 
7 10 0 8 10 0 9 10 0 
10 10 0 11 10 0 12 10 0 
13 10 0 14 10 0 15 10 0 
16 10 0 17 10 0 18 10 0 
19 10 0 20 10 0 21 10 0 
22 10 0 23 10 0 24 10 0 
25 10 0 26 10 0 27 10 0 
28 10 0 29 10 0 30 10 0 
31 10 0 32 10 0 33 10 0 
34 10 0 35 10 0 36 10 0 
37 10 0 38 10 0 39 10 0 
40 10 0 41 10 0 42 10 0 
43 10 0 44 10 0 45 10 0 
46 10 0 47 10 0 48 10 0 
49 10 0 50 10 0 51 10 0 
52 10 0 53 10 0 54 10 0 
55 10 0 56 10 0 57 10 0 
58 10 0 59 10 0 60 10 0 
61 10 0 62 10 0 63 10 0 
64 10 0 0 11 0 1 11 0 
2 11 0 3 11 0 4 11 0 
5 11 0 6 11 0 7 11 0 
8 11 0 9 11 0 10 11 0 
11 11 0 12 11 0 13 11 0 
14 11 0 15 11 0 16 11 0 
17 11 0 18 11 0 19 11 0 
20 11 0 21 11 0 22 11 0 
23 11 0 24 11 0 25 11 0 
26 11 0 27 11 0 28 11 0 
29 11 0 30 11 0 31 11 0 
32 11 0 33 11 0 34 11 0 
35 11 0 36 11 0 37 11 0 
38 11 0 39 11 0 40 11 0 
41 11 0 42 11 0 43 11 0 
44 11 0 45 11 0 46 11 0 
47 11 0 48 11 0 49 11 0 
50 11 0 51 11 0 52 11 0 
53 11 0 54 11 0 55 11 0 
56 11 0 57 11 0 58 11 0 
59 11 0 60 11 0 61 11 0 
62 11 0 63 11 0 64 11 0 
0 12 0 1 12 0 2 12 0 
3 12 0 4 12 0 5 12 0 
6 12 0 7 12 0 8 12 0 
9 12 0 10 12 0 11 12 0 
12 12 0 13 12 0 14 12 0 
15 12 0 16 12 0 17 12 0 
18 12 0 19 12 0 20 12 0 
21 12 0 22 12 0 23 12 0 
24 12 0 25 12 0 26 12 0 
27 12 0 28 12 0 29 12 0 
30 12 0 31 12 0 32 12 0 
33 12 0 34 12 0 35 12 0 
36 12 0 37 12 0 38 12 0 
39 12 0 40 12 0 41 12 0 
42 12 0 43 12 0 44 12 0 
45 12 0 46 12 0 47 12 0 
48 12 0 49 12 0 50 12 0 
51 12 0 52 12 0 53 12 0 
54 12 0 55 12 0 56 12 0 
57 12 0 58 12 0 59 12 0 
60 12 0 61 12 0 62 12 0 
63 12 0 64 12 0 0 13 0 
1 13 0 2 13 0 3 13 0 
4 13 0 5 13 0 6 13 0 
7 13 0 8 13 0 9 13 0 
10 13 0 11 13 0 12 13 0 
13 13 0 14 13 0 15 13 0 
16 13 0 17 13 0 18 13 0 
19 13 0 20 13 0 21 13 0 
22 13 0 23 13 0 24 13 0 
25 13 0 26 13 0 27 13 0 
28 13 0 29 13 0 30 13 0 
31 13 0 32 13 0 33 13 0 
34 13 0 35 13 0 36 13 0 
37 13 0 38 13 0 39 13 0 
40 13 0 41 13 0 42 13 0 
43 13 0 44 13 0 45 13 0 
46 13 0 47 13 0 48 13 0 
49 13 0 50 13 0 51 13 0 
52 13 0 53 13 0 54 13 0 
55 13 0 56 13 0 57 13 0 
58 13 0 59 13 0 60 13 0 
61 13 0 62 13 0 63 13 0 
64 13 0 0 14 0 1 14 0 
2 14 0 3 14 0 4 14 0 
5 14 0 6 14 0 7 14 0 
8 14 0 9 14 0 10 14 0 
11 14 0 12 14 0 13 14 0 
14 14 0 15 14 0 16 14 0 
17 14 0 18 14 0 19 14 0 
20 14 0 21 14 0 22 14 0 
23 14 0 24 14 0 25 14 0 
26 14 0 27 14 0 28 14 0 
29 14 0 30 14 0 31 14 0 
32 14 0 33 14 0 34 14 0 
35 14 0 36 14 0 37 14 0 
38 14 0 39 14 0 40 14 0 
41 14 0 42 14 0 43 14 0 
44 14 0 45 14 0 46 14 0 
47 14 0 48 14 0 49 14 0 
50 14 0 51 14 0 52 14 0 
53 14 0 54 14 0 55 14 0 
56 14 0 57 14 0 58 14 0 
59 14 0 60 14 0 61 14 0 
62 14 0 63 14 0 64 14 0 
0 15 0 1 15 0 2 15 0 
3 15 0 4 15 0 5 15 0 
6 15 0 7 15 0 8 15 0 
9 15 0 10 15 0 11 15 0 
12 15 0 13 15 0 14 15 0 
15 15 0 16 15 0 17 15 0 
18 15 0 19 15 0 20 15 0 
21 15 0 22 15 0 23 15 0 
24 15 0 25 15 0 26 15 0 
27 15 0 28 15 0 29 15 0 
30 15 0 31 15 0 32 15 0 
33 15 0 34 15 0 35 15 0 
36 15 0 37 15 0 38 15 0 
39 15 0 40 15 0 41 15 0 
42 15 0 43 15 0 44 15 0 
45 15 0 46 15 0 47 15 0 
48 15 0 49 15 0 50 15 0 
51 15 0 52 15 0 53 15 0 
54 15 0 55 15 0 56 15 0 
57 15 0 58 15 0 59 15 0 
60 15 0 61 15 0 62 15 0 
63 15 0 64 15 0 0 16 0 
1 16 0 2 16 0 3 16 0 
4 16 0 5 16 0 6 16 0 
7 16 0 8 16 0 9 16 0 
10 16 0 11 16 0 12 16 0 
13 16 0 14 16 0 15 16 0 
16 16 0 17 16 0 18 16 0 
19 16 0 20 16 0 21 16 0 
22 16 0 23 16 0 24 16 0 
25 16 0 26 16 0 27 16 0 
28 16 0 29 16 0 30 16 0 
31 16 0 32 16 0 33 16 0 
34 16 0 35 16 0 36 16 0 
37 16 0 38 16 0 39 16 0 
40 16 0 41 16 0 42 16 0 
43 16 0 44 16 0 45 16 0 
46 16 0 47 16 0 48 16 0 
49 16 0 50 16 0 51 16 0 
52 16 0 53 16 0 54 16 0 
55 16 0 56 16 0 57 16 0 
58 16 0 59 16 0 60 16 0 
61 16 0 62 16 0 63 16 0 
64 16 0 0 17 0 1 17 0 
2 17 0 3 17 0 4 17 0 
5 17 0 6 17 0 7 17 0 
8 17 0 9 17 0 10 17 0 
11 17 0 12 17 0 13 17 0 
14 17 0 15 17 0 16 17 0 
17 17 0 18 17 0 19 17 0 
20 17 0 21 17 0 22 17 0 
23 17 0 24 17 0 25 17 0 
26 17 0 27 17 0 28 17 0 
29 17 0 30 17 0 31 17 0 
32 17 0 33 17 0 34 17 0 
35 17 0 36 17 0 37 17 0 
38 17 0 39 17 0 40 17 0 
41 17 0 42 17 0 43 17 0 
44 17 0 45 17 0 46 17 0 
47 17 0 48 17 0 49 17 0 
50 17 0 51 17 0 52 17 0 
53 17 0 54 17 0 55 17 0 
56 17 0 57 17 0 58 17 0 
59 17 0 60 17 0 61 17 0 
62 17 0 63 17 0 64 17 0 
0 18 0 1 18 0 2 18 0 
3 18 0 4 18 0 5 18 0 
6 18 0 7 18 0 8 18 0 
9 18 0 10 18 0 11 18 0 
12 18 0 13 18 0 14 18 0 
15 18 0 16 18 0 17 18 0 
18 18 0 19 18 0 20 18 0 
21 18 0 22 18 0 23 18 0 
24 18 0 25 18 0 26 18 0 
27 18 0 28 18 0 29 18 0 
30 18 0 31 18 0 32 18 0 
33 18 0 34 18 0 35 18 0 
36 18 0 37 18 0 38 18 0 
39 18 0 40 18 0 41 18 0 
42 18 0 43 18 0 44 18 0 
45 18 0 46 18 0 47 18 0 
48 18 0 49 18 0 50 18 0 
51 18 0 52 18 0 53 18 0 
54 18 0 55 18 0 56 18 0 
57 18 0 58 18 0 59 18 0 
60 18 0 61 18 0 62 18 0 
63 18 0 64 18 0 0 19 0 
1 19 0 2 19 0 3 19 0 
4 19 0 5 19 0 6 19 0 
7 19 0 8 19 0 9 19 0 
10 19 0 11 19 0 12 19 0 
13 19 0 14 19 0 15 19 0 
16 19 0 17 19 0 18 19 0 
19 19 0 20 19 0 21 19 0 
22 19 0 23 19 0 24 19 0 
25 19 0 26 19 0 27 19 0 
28 19 0 29 19 0 30 19 0 
31 19 0 32 19 0 33 19 0 
34 19 0 35 19 0 36 19 0 
37 19 0 38 19 0 39 19 0 
40 19 0 41 19 0 42 19 0 
43 19 0 44 19 0 45 19 0 
46 19 0 47 19 0 48 19 0 
49 19 0 50 19 0 51 19 0 
52 19 0 53 19 0 54 19 0 
[...]
CELL_DATA 4096
SCALARS mu_AB double
LOOKUP_TABLE default
0 0 0 0 0 0 0 0 0 
0 0 0 0 0 0 0 0 0 
0 0 0 0 0 0 0 0 0 
0 0 0 0 0 0 0 0 0 
0 0 0 0 0 0 0 0 0 
0 0 0 0 0 0 0 0 0 
0 0 0 0 0 0 0 0 0 
0 0 0 0 0 0 0 0 0 
0 0 0 0 0 0 0 0 0 
0 0 0 0 0 0 0 0 0 
0 0 0 0 0 0 0 0 0 
0 0 0 0 0 0 0 0 0 
0 0 0 0 0 0 0 0 0 
0 0 0 0 0 0 0 0 0 
0 0 0 0 0 0 0 0 0 
0 0 0 0 0 0 0 0 0 
0 0 0 0 0 0 0 0 0 
0 0 0 0 0 0 0 0 0 
0 0 0 0 0 0 0 0 0 
0 0 0 0 0 0 0 0 0 
0 0 0 0 0 0 0 0 0 
0 0 0 0 0 0 0 0 0 
0 0 0 0 0 0 0 0 0 
0 0 0 0 0 0 0 0 0 
0 0 0 0 0 0 0 0 0 
0 0 0 0 0 0 0 0 0 
0 0 0 0 0 0 0 0 0 
0 0 0 0 0 0 0 0 0 
0 0 0 0 0 0 0 0 0 
0 0 0 0 0 0 0 0 0 
0 0 0 0 0 0 0 0 0 
0 0 0 0 0 0 0 0 0 
0 0 0 0 0 0 0 0 0 
0 0 0 0 0 0 0 0 0 
0 0 0 0 0 0 0 0 0 
0 0 0 0 0 0 0 0 0 
0 0 0 0 0 0 0 0 0 
0 0 0 0 0 0 0 0 0 
0 0 0 0 0 0 0 0 0 
0 0 0 0 0 0 0 0 0 
0 0 0 0 0 0 0 0 0 
0 0 0 0 0 0 0 0 0 
0 0 0 0 0 0 0 0 0 
0 0 0 0 0 0 0 0 0 
0 0 0 0 0 0 0 0 0 
0 0 0 0 0 0 0 0 0 
0 0 0 0 0 0 0 0 0 
0 0 0 0 0 0 0 0 0 
0 0 0 0 0 0 0 0 0 
0 0 0 0 0 0 0 0 0 
0 0 0 0 0 0 0 0 0 
0 0 0 0 0 0 0 0 0 
0 0 0 0 0 0 0 0 0 
0 0 0 0 0 0 0 0 0 
0 0 0 0 0 0 0 0 0 
0 0 0 0 0 0 0 0 0 
0 0 0 0 0 0 0 0 0 
0 0 0 0 0 0 0 0 0 
0 0 0 0 0 0 0 0 0 
0 0 0 0 0 0 0 0 0 
0 0 0 0 0 0 0 0 0 
0 0 0 0 0 0 0 0 0 
0 0 0 0 0 0 0 0 0 
0 0 0 0 0 0 0 0 0 
0 0 0 0 0 0 0 0 0 
0 0 0 0 0 0 0 0 0 
0 0 0 0 0 0 0 0 0 
0 0 0 0 0 0 0 0 0 
0 0 0 0 0 0 0 0 0 
0 0 0 0 0 0 0 0 0 
0 0 0 0 0 0 0 0 0 
0 0 0 0 0 0 0 0 0 
0 0 0 0 0 0 0 0 0 
0 0 0 0 0 0 0 0 0 
0 0 0 0 0 0 0 0 0 
0 0 0 0 0 0 0 0 0 
0 0 0 0 0 0 0 0 0 
0 0 0 0 0 0 0 0 0 
0 0 0 0 0 0 0 0 0 
0 0 0 0 0 0 0 0 0 
0 0 0 0 0 0 0 0 0 
0 0 0 0 0 0 0 0 0 
0 0 0 0 0 0 0 0 0 
0 0 0 0 0 0 0 0 0 
0 0 0 0 0 0 0 0 0 
0 0 0 0 0 0 0 0 0 
0 0 0 0 0 0 0 0 0 
0 0 0 0 0 0 0 0 0 
0 0 0 0 0 0 0 0 0 
0 0 0 0 0 0 0 0 0 
0 0 0 0 0 0 0 0 0 
0 0 0 0 0 0 0 0 0 
0 0 0 0 0 0 0 0 0 
0 0 0 0 0 0 0 0 0 
0 0 0 0 0 0 0 0 0 
0 0 0 0 0 0 0 0 0 
0 0 0 0 0 0 0 0 0 
0 0 0 0 0 0 0 0 0 
0 0 0 0 0 0 0 0 0 
0 0 0 0 0 0 0 0 0 
0 0 0 0 0 0 0 0 0 
0 0 0 0 0 0 0 0 0 
0 0 0 0 0 0 0 0 0 
0 0 0 0 0 0 0 0 0 
0 0 0 0 0 0 0 0 0 
0 0 0 0 0 0 0 0 0 
0 0 0 0 0 0 0 0 0 
0 0 0 0 0 0 0 0 0 
0 0 0 0 0 0 0 0 0 
0 0 0 0 0 0 0 0 0 
0 0 0 0 0 0 0 0 0 
0 0 0 0 0 0 0 0 0 
0 0 0 0 0 0 0 0 0 
0 0 0 0 0 0 0 0 0 
0 0 0 0 0 0 0 0 0 
0 0 0 0 0 0 0 0 0 
0 0 0 0 0 0 0 0 0 
0 0 0 0 0 0 0 0 0 
0 0 0 0 0 0 0 0 0 
0 0 0 0 0 0 0 0 0 
0 0 0 0 0 0 0 0 0 
0 0 0 0 0 0 0 0 0 
0 0 0 0 0 0 0 0 0 
0 0 0 0 0 0 0 0 0 
0 0 0 0 0 0 0 0 0 
0 0 0 0 0 0 0 0 0 
0 0 0 0 0 0 0 0 0 
0 0 0 0 0 0 0 0 0 
0 0 0 0 0 0 0 0 0 
0 0 0 0 0 0 0 0 0 
0 0 0 0 0 0 0 0 0 
0 0 0 0 0 0 0 0 0 
0 0 0 0 0 0 0 0 0 
0 0 0 0 0 0 0 0 0 
0 0 0 0 0 0 0 0 0 
0 0 0 0 0 0 0 0 0 
0 0 0 0 0 0 0 0 0 
0 0 0 0 0 0 0 0 0 
0 0 0 0 0 0 0 0 0 
0 0 0 0 0 0 0 0 0 
0 0 0 0 0 0 0 0 0 
0 0 0 0 0 0 0 0 0 
0 0 0 0 0 0 0 0 0 
0 0 0 0 0 0 0 0 0 
0 0 0 0 0 0 0 0 0 
0 0 0 0 0 0 0 0 0 
0 0 0 0 0 0 0 0 0 
0 0 0 0 0 0 0 0 0 
0 0 0 0 0 0 0 0 0 
0 0 0 0 0 0 0 0 0 
0 0 0 0 0 0 0 0 0 
0 0 0 0 0 0 0 0 0 
0 0 0 0 0 0 0 0 0 
0 0 0 0 0 0 0 0 0 
0 0 0 0 0 0 0 0 0 
0 0 0 0 0 0 0 0 0 
0 0 0 0 0 0 0 0 0 
0 0 0 0 0 0 0 0 0 
0 0 0 0 0 0 0 0 0 
0 0 0 0 0 0 0 0 0 
0 0 0 0 0 0 0 0 0 
0 0 0 0 0 0 0 0 0 
0 0 0 0 0 0 0 0 0 
0 0 0 0 0 0 0 0 0 
0 0 0 0 0 0 0 0 0 
0 0 0 0 0 0 0 0 0 
0 0 0 0 0 0 0 0 0 
0 0 0 0 0 0 0 0 0 
0 0 0 0 0 0 0 0 0 
0 0 0 0 0 0 0 0 0 
0 0 0 0 0 0 0 0 0 
0 0 0 0 0 0 0 0 0 
0 0 0 0 0 0 0 0 0 
0 0 0 0 0 0 0 0 0 
0 0 0 0 0 0 0 0 0 
0 0 0 0 0 0 0 0 0 
0 0 0 0 0 0 0 0 0 
0 0 0 0 0 0 0 0 0 
0 0 0 0 0 0 0 0 0 
0 0 0 0 0 0 0 0 0 
0 0 0 0 0 0 0 0 0 
0 0 0 0 0 0 0 0 0 
0 0 0 0 0 0 0 0 0 
0 0 0 0 0 0 0 0 0 
0 0 0 0 0 0 0 0 0 
0 0 0 0 0 0 0 0 0 
0 0 0 0 0 0 0 0 0 
0 0 0 0 0 0 0 0 0 
0 0 0 0 0 0 0 0 0 
0 0 0 0 0 0 0 0 0 
0 0 0 0 0 0 0 0 0 
0 0 0 0 0 0 0 0 0 
0 0 0 0 0 0 0 0 0 
0 0 0 0 0 0 0 0 0 
0 0 0 0 0 0 0 0 0 
0 0 0 0 0 0 0 0 0 
0 0 0 0 0 0 0 0 0 
0 0 0 0 0 0 0 0 0 
0 0 0 0 0 0 0 0 0 
0 0 0 0 0 0 0 0 0 
0 0 0 0 0 0 0 0 0 
0 0 0 0 0 0 0 0 0 
0 0 0 0 0 0 0 0 0 
0 0 0 0 0 0 0 0 0 
0 0 0 0 0 0 0 0 0 
0 0 0 0 0 0 0 0 0 
0 0 0 0 0 0 0 0 0 
0 0 0 0 0 0 0 0 0 
0 0 0 0 0 0 0 0 0 
0 0 0 0 0 0 0 0 0 
0 0 0 0 0 0 0 0 0 
0 0 0 0 0 0 0 0 0 
0 0 0 0 0 0 0 0 0 
0 0 0 0 0 0 0 0 0 
0 0 0 0 0 0 0 0 0 
0 0 0 0 0 0 0 0 0 
0 0 0 0 0 0 0 0 0 
0 0 0 0 0 0 0 0 0 
0 0 0 0 0 0 0 0 0 
0 0 0 0 0 0 0 0 0 
0 0 0 0 0 0 0 0 0 
0 0 0 0 0 0 0 0 0 
0 0 0 0 0 0 0 0 0 
0 0 0 0 0 0 0 0 0 
0 0 0 0 0 0 0 0 0 
0 0 0 0 0 0 0 0 0 
0 0 0 0 0 0 0 0 0 
0 0 0 0 0 0 0 0 0 
0 0 0 0 0 0 0 0 0 
0 0 0 0 0 0 0 0 0 
0 0 0 0 0 0 0 0 0 
0 0 0 0 0 0 0 0 0 
0 0 0 0 0 0 0 0 0 
0 0 0 0 0 0 0 0 0 
0 0 0 0 0 0 0 0 0 
0 0 0 0 0 0 0 0 0 
0 0 0 0 0 0 0 0 0 
0 0 0 0 0 0 0 0 0 
0 0 0 0 0 0 0 0 0 
0 0 0 0 0 0 0 0 0 
0 0 0 0 0 0 0 0 0 
0 0 0 0 0 0 0 0 0 
0 0 0 0 0 0 0 0 0 
0 0 0 0 0 0 0 0 0 
0 0 0 0 0 0 0 0 0 
0 0 0 0 0 0 0 0 0 
0 0 0 0 0 0 0 0 0 
0 0 0 0 0 0 0 0 0 
0 0 0 0 0 0 0 0 0 
0 0 0 0 0 0 0 0 0 
0 0 0 0 0 0 0 0 0 
0 0 0 0 0 0 0 0 0 
0 0 0 0 0 0 0 0 0 
0 0 0 0 0 0 0 0 0 
0 0 0 0 0 0 0 0 0 
0 0 0 0 0 0 0 0 0 
0 0 0 0 0 0 0 0 0 
0 0 0 0 0 0 0 0 0 
0 0 0 0 0 0 0 0 0 
0 0 0 0 0 0 0 0 0 
0 0 0 0 0 0 0 0 0 
0 0 0 0 0 0 0 0 0 
0 0 0 0 0 0 0 0 0 
0 0 0 0 0 0 0 0 0 
0 0 0 0 0 0 0 0 0 
0 0 0 0 0 0 0 0 0 
0 0 0 0 0 0 0 0 0 
0 0 0 0 0 0 0 0 0 
0 0 0 0 0 0 0 0 0 
0 0 0 0 0 0 0 0 0 
0 0 0 0 0 0 0 0 0 
0 0 0 0 0 0 0 0 0 
0 0 0 0 0 0 0 0 0 
0 0 0 0 0 0 0 0 0 
0 0 0 0 0 0 0 0 0 
0 0 0 0 0 0 0 0 0 
0 0 0 0 0 0 0 0 0 
0 0 0 0 0 0 0 0 0 
0 0 0 0 0 0 0 0 0 
0 0 0 0 0 0 0 0 0 
0 0 0 0 0 0 0 0 0 
0 0 0 0 0 0 0 0 0 
0 0 0 0 0 0 0 0 0 
0 0 0 0 0 0 0 0 0 
0 0 0 0 0 0 0 0 0 
0 0 0 0 0 0 0 0 0 
0 0 0 0 0 0 0 0 0 
0 0 0 0 0 0 0 0 0 
0 0 0 0 0 0 0 0 0 
0 0 0 0 0 0 0 0 0 
0 0 0 0 0 0 0 0 0 
0 0 0 0 0 0 0 0 0 
0 0 0 0 0 0 0 0 0 
0 0 0 0 0 0 0 0 0 
0 0 0 0 0 0 0 0 0 
0 0 0 0 0 0 0 0 0 
0 0 0 0 0 0 0 0 0 
0 0 0 0 0 0 0 0 0 
0 0 0 0 0 0 0 0 0 
0 0 0 0 0 0 0 0 0 
0 0 0 0 0 0 0 0 0 
0 0 0 0 0 0 0 0 0 
0 0 0 0 0 0 0 0 0 
0 0 0 0 0 0 0 0 0 
0 0 0 0 0 0 0 0 0 
0 0 0 0 0 0 0 0 0 
0 0 0 0 0 0 0 0 0 
0 0 0 0 0 0 0 0 0 
0 0 0 0 0 0 0 0 0 
0 0 0 0 0 0 0 0 0 
0 0 0 0 0 0 0 0 0 
0 0 0 0 0 0 0 0 0 
0 0 0 0 0 0 0 0 0 
0 0 0 0 0 0 0 0 0 
0 0 0 0 0 0 0 0 0 
0 0 0 0 0 0 0 0 0 
0 0 0 0 0 0 0 0 0 
0 0 0 0 0 0 0 0 0 
0 0 0 0 0 0 0 0 0 
0 0 0 0 0 0 0 0 0 
0 0 0 0 0 0 0 0 0 
0 0 0 0 0 0 0 0 0 
0 0 0 0 0 0 0 0 0 
0 0 0 0 0 0 0 0 0 
0 0 0 0 0 0 0 0 0 
0 0 0 0 0 0 0 0 0 
0 0 0 0 0 0 0 0 0 
0 0 0 0 0 0 0 0 0 
0 0 0 0 0 0 0 0 0 
0 0 0 0 0 0 0 0 0 
0 0 0 0 0 0 0 0 0 
0 0 0 0 0 0 0 0 0 
0 0 0 0 0 0 0 0 0 
0 0 0 0 0 0 0 0 0 
0 0 0 0 0 0 0 0 0 
0 0 0 0 0 0 0 0 0 
0 0 0 0 0 0 0 0 0 
0 0 0 0 0 0 0 0 0 
0 0 0 0 0 0 0 0 0 
0 0 0 0 0 0 0 0 0 
0 0 0 0 0 0 0 0 0 
0 0 0 0 0 0 0 0 0 
0 0 0 0 0 0 0 0 0 
0 0 0 0 0 0 0 0 0 
0 0 0 0 0 0 0 0 0 
0 0 0 0 0 0 0 0 0 
0 0 0 0 0 0 0 0 0 
0 0 0 0 0 0 0 0 0 
0 0 0 0 0 0 0 0 0 
0 0 0 0 0 0 0 0 0 
0 0 0 0 0 0 0 0 0 
0 0 0 0 0 0 0 0 0 
0 0 0 0 0 0 0 0 0 
0 0 0 0 0 0 0 0 0 
0 0 0 0 0 0 0 0 0 
0 0 0 0 0 0 0 0 0 
0 0 0 0 0 0 0 0 0 
0 0 0 0 0 0 0 0 0 
0 0 0 0 0 0 0 0 0 
0 0 0 0 0 0 0 0 0 
0 0 0 0 0 0 0 0 0 
0 0 0 0 0 0 0 0 0 
0 0 0 0 0 0 0 0 0 
0 0 0 0 0 0 0 0 0 
0 0 0 0 0 0 0 0 0 
0 0 0 0 0 0 0 0 0 
0 0 0 0 0 0 0 0 0 
0 0 0 0 0 0 0 0 0 
0 0 0 0 0 0 0 0 0 
0 0 0 0 0 0 0 0 0 
0 0 0 0 0 0 0 0 0 
0 0 0 0 0 0 0 0 0 
0 0 0 0 0 0 0 0 0 
0 0 0 0 0 0 0 0 0 
0 0 0 0 0 0 0 0 0 
0 0 0 0 0 0 0 0 0 
0 0 0 0 0 0 0 0 0 
0 0 0 0 0 0 0 0 0 
0 0 0 0 0 0 0 0 0 
0 0 0 0 0 0 0 0 0 
0 0 0 0 0 0 0 0 0 
0 0 0 0 0 0 0 0 0 
0 0 0 0 0 0 0 0 0 
0 0 0 0 0 0 0 0 0 
0 0 0 0 0 0 0 0 0 
0 0 0 0 0 0 0 0 0 
0 0 0 0 0 0 0 0 0 
0 0 0 0 0 0 0 0 0 
0 0 0 0 0 0 0 0 0 
0 0 0 0 0 0 0 0 0 
0 0 0 0 0 0 0 0 0 
0 0 0 0 0 0 0 0 0 
0 0 0 0 0 0 0 0 0 
0 0 0 0 0 0 0 0 0 
0 0 0 0 0 0 0 0 0 
0 0 0 0 0 0 0 0 0 
0 0 0 0 0 0 0 0 0 
0 0 0 0 0 0 0 0 0 
0 0 0 0 0 0 0 0 0 
0 0 0 0 0 0 0 0 0 
0 0 0 0 0 0 0 0 0 
0 0 0 0 0 0 0 0 0 
0 0 0 0 0 0 0 0 0 
0 0 0 0 0 0 0 0 0 
0 0 0 0 0 0 0 0 0 
0 0 0 0 0 0 0 0 0 
0 0 0 0 0 0 0 0 0 
0 0 0 0 0 0 0 0 0 
0 0 0 0 0 0 0 0 0 
0 0 0 0 0 0 0 0 0 
0 0 0 0 0 0 0 0 0 
0 0 0 0 0 0 0 0 0 
0 0 0 0 0 0 0 0 0 
0 0 0 0 0 0 0 0 0 
0 0 0 0 0 0 0 0 0 
0 0 0 0 0 0 0 0 0 
0 0 0 0 0 0 0 0 0 
0 0 0 0 0 0 0 0 0 
0 0 0 0 0 0 0 0 0 
0 0 0 0 0 0 0 0 0 
0 0 0 0 0 0 0 0 0 
0 0 0 0 0 0 0 0 0 
0 0 0 0 0 0 0 0 0 
0 0 0 0 0 0 0 0 0 
0 0 0 0 0 0 0 0 0 
0 0 0 0 0 0 0 0 0 
0 0 0 0 0 0 0 0 0 
0 0 0 0 0 0 0 0 0 
0 0 0 0 0 0 0 0 0 
0 0 0 0 0 0 0 0 0 
0 0 0 0 0 0 0 0 0 
0 0 0 0 0 0 0 0 0 
0 0 0 0 0 0 0 0 0 
0 0 0 0 0 0 0 0 0 
0 0 0 0 0 0 0 0 0 
0 0 0 0 0 0 0 0 0 
0 0 0 0 0 0 0 0 0 
0 0 0 0 0 0 0 0 0 
0 0 0 0 0 0 0 0 0 
0 0 0 0 0 0 0 0 0 
0 0 0 0 0 0 0 0 0 
0 0 0 0 0 0 0 0 0 
0 0 0 0 0 0 0 0 0 
0 0 0 0 0 0 0 0 0 
0 0 0 0 0 0 0 0 0 
0 0 0 0 0 0 0 0 0 
0 0 0 0 0 0 0 0 0 
0 0 0 0 0 0 0 0 0 
0 0 0 0 0 0 0 0 0 
0 0 0 0 0 0 0 0 0 
0 0 0 0 0 0 0 0 0 
0 0 0 0 0 0 0 0 0 
0 0 0 0 0 0 0 0 0 
0 0 0 0 0 0 0 0 0 
0 0 0 0 0 0 0 0 0 
0 
FIELD FieldData 1
x_a 1 4096 double
0.53331425364 0.36226761407 0.53132602395 0.68753058766 0.66354193799 0.42661569898 0.54613601826 0.59548247685 0.49040216486 
0.47895574808 0.50374307048 0.57501012638 0.46437264016 0.46306346799 0.52356781045 0.50262315986 0.47554957582 0.39403285469 
0.52877216082 0.34111296656 0.54773659682 0.44632834829 0.4432516765 0.40450000377 0.4038461572 0.6700854061 0.37260919093 
0.61706072346 0.37634495551 0.62942114109 0.67033245252 0.59192861505 0.49693766241 0.55488832677 0.54642572318 0.51358947834 
0.4738190431 0.4885190563 0.41281052576 0.38370736419 0.38464834346 0.47446488805 0.66028563812 0.56372903688 0.57998997459 
0.5431055994 0.37173949575 0.58155429541 0.54426005955 0.41942332044 0.37217280303 0.53310715161 0.59781946524 0.43625770102 
0.54693172764 0.68600227284 0.41028008974 0.26879009897 0.40649373393 0.43648952884 0.59638489069 0.52695624613 0.30262108846 
0.49601253519 0.32907084116 0.6920610402 0.32723033648 0.38051374484 0.46350670283 0.53914265108 0.41163258674 0.45068950967 
0.57370122954 0.57204361494 0.50291847724 0.35693251982 0.61253662164 0.42144327276 0.4725075084 0.63638172703 0.63572530207 
0.45937009258 0.4839780855 0.55326232855 0.52493679323 0.39172750416 0.53384438474 0.35995026479 0.53298940772 0.56343027026 
0.31562502781 0.38792273912 0.35352896569 0.3442214961 0.44175650916 0.52458405505 0.47937811526 0.36239213253 0.57112316305 
0.56283739594 0.48614883479 0.59607005505 0.55977970746 0.43593593822 0.85388775955 0.59944548619 0.60239135805 0.45814939834 
0.38013735299 0.44293251522 0.44264425473 0.49048133161 0.5827094557 0.40863534958 0.53459481951 0.51651904242 0.4980100409 
0.62687031527 0.42534340986 0.57521645214 0.5700618024 0.5796902619 0.51755074705 0.60737274199 0.39430640996 0.49086327971 
0.52261310812 0.46904450843 0.39787801249 0.53268492303 0.45292663407 0.59407256625 0.5419937059 0.34656748689 0.49589333234 
0.51536104337 0.62474127204 0.45624168299 0.45926353294 0.55985991894 0.54654698249 0.35792891667 0.23210212955 0.5256630718 
0.60715459968 0.57541861327 0.54731501989 0.46384109364 0.42937219427 0.63605994226 0.60410983843 0.48238199437 0.3098536586 
0.51532151378 0.58645524753 0.43900302963 0.46144128277 0.68244161733 0.6585504209 0.45763724365 0.5082891369 0.65902755752 
0.61220402853 0.38714672505 0.56354907749 0.44486002173 0.52061544184 0.35302891238 0.52412750123 0.53378469647 0.44207562427 
0.66373176523 0.55291691553 0.35485447026 0.5081027003 0.54318098379 0.50729223636 0.63740868402 0.58634677383 0.53560453721 
0.44516913223 0.44721875051 0.58049608473 0.46545400281 0.42786856121 0.60051877367 0.55834921884 0.43427184593 0.29726420927 
0.53799223909 0.44858531108 0.32088319049 0.55564225999 0.45025987263 0.54756379833 0.48553063472 0.23685024948 0.64840510288 
0.4051451092 0.41604834812 0.502721125 0.47922160927 0.51776802549 0.4283450142 0.37607902414 0.3695169061 0.56293993233 
0.57301767489 0.48058052059 0.62367756726 0.36630256665 0.4517280158 0.39851759232 0.30862289499 0.46047113706 0.53420317799 
0.52336721649 0.53728779028 0.58136079587 0.38437063555 0.5452523255 0.58049112533 0.43423771409 0.56154193559 0.40883101453 
0.54598272785 0.39665727348 0.51845725557 0.52975443009 0.27073920671 0.56377829729 0.34563178 0.38600784669 0.66751447826 
0.41380727045 0.47241087238 0.40905937274 0.70740668785 0.57843959474 0.42190237664 0.49243049734 0.57155685029 0.6160310343 
0.40006242039 0.64565891703 0.53564418619 0.50519745166 0.57115634274 0.46919880256 0.6122384274 0.30218384771 0.37015306722 
0.64686082562 0.51899459294 0.36244610301 0.54485450464 0.64794836414 0.57636792926 0.48195059648 0.58529590151 0.71355227915 
0.4896702886 0.40333328917 0.43994274745 0.50228544096 0.55638060065 0.57374657955 0.61645893319 0.49351669044 0.49706204018 
0.5468667602 0.31258957272 0.6217713796 0.51574484312 0.37833549059 0.47551412386 0.39579562516 0.64441246186 0.44001813914 
0.57330210214 0.469245858 0.34122234378 0.42351595416 0.53449569692 0.71241612577 0.44311190397 0.47129513285 0.5011290716 
0.33155536476 0.56021074839 0.52530248575 0.49399260746 0.48336785857 0.71746907161 0.48285577523 0.54600147784 0.43446374632 
0.39851169179 0.61365011664 0.33204388088 0.46654639992 0.47352304797 0.42093302735 0.67471415702 0.48819527564 0.54513311785 
0.47652080093 0.63665670754 0.42847318846 0.64500847379 0.53234392496 0.62914898692 0.42904397937 0.3925715463 0.60279076095 
0.52099735746 0.53990599406 0.3863480568 0.35131437474 0.55477481937 0.57104484665 0.45200151824 0.61071010809 0.39626297649 
0.59048051715 0.35493132601 0.42462219874 0.64819746161 0.52694906998 0.49997262012 0.56120637377 0.46480708184 0.5635723399 
0.42661642075 0.5636799111 0.40472808817 0.67548425537 0.43499908101 0.4331549626 0.48208460963 0.45962701003 0.60625908984 
0.47203323105 0.44632703572 0.51686793264 0.65586671177 0.45916971664 0.63204008391 0.53371569277 0.53200451155 0.34026104853 
0.72156637181 0.61126576363 0.43401940751 0.50011713379 0.53309092205 0.43577525284 0.47173773823 0.50603530897 0.56190297552 
0.4144789573 0.34239995358 0.37382790813 0.61617804232 0.53774314988 0.34915687546 0.47757134099 0.49458851837 0.66413667222 
0.43890146948 0.44958050516 0.32129356811 0.54417964176 0.62165329692 0.42646446876 0.46647088468 0.55380423616 0.55482405265 
0.44517449983 0.61995067786 0.46310477498 0.4399719224 0.38845650141 0.6763135184 0.52252693484 0.53090480258 0.44592955343 
0.3460071003 0.42115906888 0.35930415087 0.3881402147 0.47487903163 0.51881972635 0.75562951836 0.69662050812 0.42541656142 
0.52896513947 0.42399486908 0.53775540797 0.4697299227 0.62410157717 0.5148041024 0.73944675377 0.35614242397 0.43258581571 
0.53570902602 0.51004265118 0.27217325765 0.8661142867 0.48326070092 0.35402088559 0.44559133343 0.57671161944 0.39106504194 
0.41845020211 0.47436372179 0.41394007461 0.44356625535 0.51385058424 0.40090403242 0.46259662051 0.49670097174 0.63001485869 
0.62108040196 0.48645375825 0.53918698283 0.64188915877 0.46951753534 0.61996445727 0.68077128109 0.60026597439 0.56896676968 
0.46171520825 0.59902651579 0.54522644725 0.57583112689 0.37348001368 0.41530434968 0.37946067153 0.41068373064 0.54900200674 
0.57315994751 0.41273971635 0.58320083494 0.55607589371 0.52774569601 0.61058243967 0.51428667369 0.54232149892 0.44382316168 
0.70982564369 0.49837332439 0.67606231558 0.57071116622 0.50121916463 0.69549132984 0.52422835975 0.58312192534 0.40714300616 
0.42288428702 0.64111152674 0.51572958947 0.6731749821 0.47696700124 0.61404216973 0.51224154517 0.48381569705 0.49436041836 
0.42250613673 0.44207134357 0.61810733715 0.57848746524 0.59084612617 0.39076620159 0.54565681686 0.41675472514 0.44630169597 
0.45497992393 0.57560427714 0.38852525593 0.50360412307 0.52230894584 0.5413910543 0.49677637579 0.3117392446 0.75554886452 
0.60762733818 0.46029131841 0.59104858791 0.57290137398 0.37613419842 0.65653479292 0.46901374012 0.51927784666 0.55981248283 
0.51446082835 0.37950507296 0.56925902349 0.49199157282 0.64080865531 0.60751426331 0.49173596081 0.50993869252 0.50039437409 
0.29589419585 0.4561025936 0.37941638445 0.52162459968 0.53646748645 0.62642849882 0.47434711859 0.4536066546 0.46029097012 
0.5257138051 0.64813286577 0.53870232826 0.51848299021 0.39300969885 0.52467679197 0.56493938162 0.43899053099 0.46318570385 
0.47768789958 0.6449482808 0.49488527962 0.46321745686 0.29072784835 0.57528865206 0.65358758315 0.48377237594 0.44231604852 
0.5517188912 0.61052952883 0.5698715071 0.54638054745 0.36954332137 0.5984486126 0.45993291515 0.37479780123 0.72263946191 
0.52156165714 0.49606661005 0.75307249306 0.55367617679 0.50874467677 0.58450566738 0.39871838569 0.597212427 0.57742226767 
0.60988480827 0.54314207591 0.54175712085 0.55849621044 0.50122817516 0.51445160632 0.31492167119 0.44233522192 0.6913654542 
0.40121396806 0.36360150603 0.38022803442 0.40860646099 0.31830612171 0.52715643183 0.64191054347 0.55331705582 0.37955108355 
0.65491731494 0.49977221179 0.43205620908 0.45423966513 0.3103950094 0.4994383165 0.33607922304 0.54804566058 0.48135089801 
0.48248050855 0.49613710942 0.56227278127 0.53732657119 0.45182603453 0.5158706367 0.55701258366 0.62464772541 0.44677682142 
0.60962268828 0.53214792352 0.2436716773 0.4093024752 0.46857382145 0.47897083877 0.51686004932 0.30811245289 0.52054770427 
0.50709073167 0.43446528353 0.55887578327 0.56040760057 0.39577335074 0.41132824524 0.6443208536 0.40295026515 0.60892471609 
0.54433170285 0.40182085488 0.45091825759 0.47032586145 0.47879011874 0.63998481781 0.44443450892 0.70839050859 0.65351111739 
0.60110387026 0.44018798049 0.63303576243 0.55784841442 0.53448230597 0.60944181694 0.41557533902 0.77522946135 0.51613857462 
0.6206486551 0.32384893083 0.52816056064 0.6699399922 0.6325085884 0.52297883744 0.41612676966 0.48400339984 0.51456880339 
0.39887226955 0.41287255498 0.52757290982 0.61356667465 0.40333224966 0.23676170827 0.53916299405 0.41601051459 0.54226745445 
0.54382999982 0.52504674349 0.52381820346 0.60412483789 0.44473269194 0.4243758063 0.46159761892 0.55055547091 0.48082644033 
0.51721395245 0.38765975016 0.53388904979 0.41644146082 0.63018227127 0.54074353683 0.7327968683 0.4728602465 0.4895495923 
0.44308247126 0.42611804082 0.46229419414 0.48491843106 0.35542644385 0.46339247926 0.38580714819 0.38561092328 0.43939944759 
0.44414565694 0.64111858863 0.40563105167 0.40128517256 0.35604950149 0.51418774228 0.44709653765 0.3022329491 0.43082509271 
0.52284953568 0.47610883853 0.43977924283 0.27906602377 0.56149430559 0.48847906026 0.43556233213 0.55886927109 0.68068129983 
0.57207694529 0.52065957628 0.4983015171 0.55077940332 0.55038629098 0.52419093203 0.40563051094 0.56451615029 0.66804404704 
0.64569498289 0.41046524592 0.44799854878 0.46783019959 0.50966852229 0.50092576444 0.61524546819 0.50648777067 0.40581870223 
0.49859263793 0.57050917731 0.52093057348 0.50867058427 0.52697354983 0.54459237732 0.65814414335 0.54899038224 0.50847986399 
0.38923685527 0.45919901906 0.48632890216 0.49957690568 0.47599630929 0.71716425703 0.58824857836 0.72769392857 0.6702289146 
0.51422890923 0.45341576318 0.58844646425 0.48018468653 0.65857102238 0.55126215004 0.51407950167 0.5906538982 0.28555309766 
0.60447209259 0.42428302031 0.3542197112 0.36400989036 0.56333651333 0.45127618246 0.2884346734 0.37875032616 0.52967313146 
0.53769100336 0.38891449247 0.53360272617 0.52624832743 0.47080794997 0.51507797593 0.57834406065 0.48517180765 0.51378969788 
0.68233381831 0.42325687375 0.60889307829 0.51853345705 0.48296930644 0.52427344503 0.61973360361 0.38235339447 0.34713391393 
0.487853596 0.42406769379 0.33960108851 0.46001984429 0.65776008925 0.61462593675 0.59362905833 0.55396678452 0.48804212628 
0.58693074432 0.49125354273 0.61414493145 0.54643137474 0.28742903311 0.47262421403 0.5164182975 0.50022339421 0.58751917489 
0.31313255472 0.51032512264 0.4526895216 0.5280606629 0.35806893609 0.32349286894 0.57379868649 0.33518350688 0.40823304673 
0.61737036416 0.49653428049 0.42280988067 0.56130737338 0.39847527925 0.49671310802 0.58958427603 0.42859982147 0.63495425123 
0.27941868946 0.59960184145 0.32533848724 0.42411650642 0.49414030549 0.56356582333 0.32562491344 0.4164859252 0.43619059928 